# vtk DataFile Version 2.0
Mesh1
ASCII
DATASET UNSTRUCTURED_GRID
POINTS 651 float
 0.000000000e+00 0.000000000e+00 0.000000000e+00
 1.156792695e+00 0.000000000e+00 0.000000000e+00
 2.311867536e+00 0.000000000e+00 0.000000000e+00
 3.463525492e+00 0.000000000e+00 0.000000000e+00
 4.610104965e+00 0.000000000e+00 0.000000000e+00
 5.750000000e+00 0.000000000e+00 0.000000000e+00
 6.881677878e+00 0.000000000e+00 0.000000000e+00
 8.003695910e+00 0.000000000e+00 0.000000000e+00
 9.114717238e+00 0.000000000e+00 0.000000000e+00
 1.021352549e+01 0.000000000e+00 0.000000000e+00
 1.129903811e+01 0.000000000e+00 0.000000000e+00
 1.237031819e+01 0.000000000e+00 0.000000000e+00
 1.342658477e+01 0.000000000e+00 0.000000000e+00
 1.446722140e+01 0.000000000e+00 0.000000000e+00
 1.549178284e+01 0.000000000e+00 0.000000000e+00
 1.650000000e+01 0.000000000e+00 0.000000000e+00
 1.749178284e+01 0.000000000e+00 0.000000000e+00
 1.846722140e+01 0.000000000e+00 0.000000000e+00
 1.942658477e+01 0.000000000e+00 0.000000000e+00
 2.037031819e+01 0.000000000e+00 0.000000000e+00
 2.129903811e+01 0.000000000e+00 0.000000000e+00
 2.221352549e+01 0.000000000e+00 0.000000000e+00
 2.311471724e+01 0.000000000e+00 0.000000000e+00
 2.400369591e+01 0.000000000e+00 0.000000000e+00
 2.488167788e+01 0.000000000e+00 0.000000000e+00
 2.575000000e+01 0.000000000e+00 0.000000000e+00
 2.661010496e+01 0.000000000e+00 0.000000000e+00
 2.746352549e+01 0.000000000e+00 0.000000000e+00
 2.831186754e+01 0.000000000e+00 0.000000000e+00
 2.915679269e+01 0.000000000e+00 0.000000000e+00
 3.000000000e+01 0.000000000e+00 0.000000000e+00
 0.000000000e+00 8.435655350e-01 0.000000000e+00
 1.139703314e+00 8.512219827e-01 0.000000000e+00
 2.277876009e+00 8.734418593e-01 0.000000000e+00
 3.413004237e+00 9.080501285e-01 0.000000000e+00
 4.543607504e+00 9.516590918e-01 0.000000000e+00
 5.668254893e+00 1.000000000e+00 0.000000000e+00
 6.785580742e+00 1.048340908e+00 0.000000000e+00
 7.894299604e+00 1.091949872e+00 0.000000000e+00
 8.993220332e+00 1.126558141e+00 0.000000000e+00
 1.008125913e+01 1.148778017e+00 0.000000000e+00
 1.115745143e+01 1.156434465e+00 0.000000000e+00
 1.222096244e+01 1.148778017e+00 0.000000000e+00
 1.327109634e+01 1.126558141e+00 0.000000000e+00
 1.430730384e+01 1.091949872e+00 0.000000000e+00
 1.532918825e+01 1.048340908e+00 0.000000000e+00
 1.633650979e+01 1.000000000e+00 0.000000000e+00
 1.732918825e+01 9.516590918e-01 0.000000000e+00
 1.830730384e+01 9.080501285e-01 0.000000000e+00
 1.927109634e+01 8.734418593e-01 0.000000000e+00
 2.022096244e+01 8.512219827e-01 0.000000000e+00
 2.115745143e+01 8.435655350e-01 0.000000000e+00
 2.208125913e+01 8.512219827e-01 0.000000000e+00
 2.299322033e+01 8.734418593e-01 0.000000000e+00
 2.389429960e+01 9.080501285e-01 0.000000000e+00
 2.478558074e+01 9.516590918e-01 0.000000000e+00
 2.566825489e+01 1.000000000e+00 0.000000000e+00
 2.654360750e+01 1.048340908e+00 0.000000000e+00
 2.741300424e+01 1.091949872e+00 0.000000000e+00
 2.827787601e+01 1.126558141e+00 0.000000000e+00
 2.913970331e+01 1.148778017e+00 0.000000000e+00
 3.000000000e+01 1.156434465e+00 0.000000000e+00
 0.000000000e+00 1.690983006e+00 0.000000000e+00
 1.092160434e+00 1.706107374e+00 0.000000000e+00
 2.183311138e+00 1.750000000e+00 0.000000000e+00
 3.272453448e+00 1.818364368e+00 0.000000000e+00
 4.358610701e+00 1.904508497e+00 0.000000000e+00
 5.440838939e+00 2.000000000e+00 0.000000000e+00
 6.518237254e+00 2.095491503e+00 0.000000000e+00
 7.589957653e+00 2.181635632e+00 0.000000000e+00
 8.655214353e+00 2.250000000e+00 0.000000000e+00
 9.713292387e+00 2.293892626e+00 0.000000000e+00
 1.076355544e+01 2.309016994e+00 0.000000000e+00
 1.180545282e+01 2.293892626e+00 0.000000000e+00
 1.283852549e+01 2.250000000e+00 0.000000000e+00
 1.386241110e+01 2.181635632e+00 0.000000000e+00
 1.487684795e+01 2.095491503e+00 0.000000000e+00
 1.588167788e+01 2.000000000e+00 0.000000000e+00
 1.687684795e+01 1.904508497e+00 0.000000000e+00
 1.786241110e+01 1.818364368e+00 0.000000000e+00
 1.883852549e+01 1.750000000e+00 0.000000000e+00
 1.980545282e+01 1.706107374e+00 0.000000000e+00
 2.076355544e+01 1.690983006e+00 0.000000000e+00
 2.171329239e+01 1.706107374e+00 0.000000000e+00
 2.265521435e+01 1.750000000e+00 0.000000000e+00
 2.358995765e+01 1.818364368e+00 0.000000000e+00
 2.451823725e+01 1.904508497e+00 0.000000000e+00
 2.544083894e+01 2.000000000e+00 0.000000000e+00
 2.635861070e+01 2.095491503e+00 0.000000000e+00
 2.727245345e+01 2.181635632e+00 0.000000000e+00
 2.818331114e+01 2.250000000e+00 0.000000000e+00
 2.909216043e+01 2.293892626e+00 0.000000000e+00
 3.000000000e+01 2.309016994e+00 0.000000000e+00
 0.000000000e+00 2.546009500e+00 0.000000000e+00
 1.024527781e+00 2.568229377e+00 0.000000000e+00
 2.048786831e+00 2.632713970e+00 0.000000000e+00
 3.072511362e+00 2.733151080e+00 0.000000000e+00
 4.095441444e+00 2.859709220e+00 0.000000000e+00
 5.117325849e+00 3.000000000e+00 0.000000000e+00
 6.137924807e+00 3.140290780e+00 0.000000000e+00
 7.157012633e+00 3.266848920e+00 0.000000000e+00
 8.174380195e+00 3.367286030e+00 0.000000000e+00
 9.189837211e+00 3.431770623e+00 0.000000000e+00
 1.020321433e+01 3.453990500e+00 0.000000000e+00
 1.121436499e+01 3.431770623e+00 0.000000000e+00
 1.222316703e+01 3.367286030e+00 0.000000000e+00
 1.322952399e+01 3.266848920e+00 0.000000000e+00
 1.423336625e+01 3.140290780e+00 0.000000000e+00
 1.523465170e+01 3.000000000e+00 0.000000000e+00
 1.623336625e+01 2.859709220e+00 0.000000000e+00
 1.722952399e+01 2.733151080e+00 0.000000000e+00
 1.822316703e+01 2.632713970e+00 0.000000000e+00
 1.921436499e+01 2.568229377e+00 0.000000000e+00
 2.020321433e+01 2.546009500e+00 0.000000000e+00
 2.118983721e+01 2.568229377e+00 0.000000000e+00
 2.217438019e+01 2.632713970e+00 0.000000000e+00
 2.315701263e+01 2.733151080e+00 0.000000000e+00
 2.413792481e+01 2.859709220e+00 0.000000000e+00
 2.511732585e+01 3.000000000e+00 0.000000000e+00
 2.609544144e+01 3.140290780e+00 0.000000000e+00
 2.707251136e+01 3.266848920e+00 0.000000000e+00
 2.804878683e+01 3.367286030e+00 0.000000000e+00
 2.902452778e+01 3.431770623e+00 0.000000000e+00
 3.000000000e+01 3.453990500e+00 0.000000000e+00
 0.000000000e+00 3.412214748e+00 0.000000000e+00
 9.515483927e-01 3.440983006e+00 0.000000000e+00
 1.903627631e+00 3.524471742e+00 0.000000000e+00
 2.856762746e+00 3.654508497e+00 0.000000000e+00
 3.811467198e+00 3.818364368e+00 0.000000000e+00
 4.768237254e+00 4.000000000e+00 0.000000000e+00
 5.727546552e+00 4.181635632e+00 0.000000000e+00
 6.689840907e+00 4.345491503e+00 0.000000000e+00
 7.655533429e+00 4.475528258e+00 0.000000000e+00
 8.625000000e+00 4.559016994e+00 0.000000000e+00
 9.598575149e+00 4.587785252e+00 0.000000000e+00
 1.057654839e+01 4.559016994e+00 0.000000000e+00
 1.155916106e+01 4.475528258e+00 0.000000000e+00
 1.254660365e+01 4.345491503e+00 0.000000000e+00
 1.353901375e+01 4.181635632e+00 0.000000000e+00
 1.453647451e+01 4.000000000e+00 0.000000000e+00
 1.553901375e+01 3.818364368e+00 0.000000000e+00
 1.654660365e+01 3.654508497e+00 0.000000000e+00
 1.755916106e+01 3.524471742e+00 0.000000000e+00
 1.857654839e+01 3.440983006e+00 0.000000000e+00
 1.959857515e+01 3.412214748e+00 0.000000000e+00
 2.062500000e+01 3.440983006e+00 0.000000000e+00
 2.165553343e+01 3.524471742e+00 0.000000000e+00
 2.268984091e+01 3.654508497e+00 0.000000000e+00
 2.372754655e+01 3.818364368e+00 0.000000000e+00
 2.476823725e+01 4.000000000e+00 0.000000000e+00
 2.581146720e+01 4.181635632e+00 0.000000000e+00
 2.685676275e+01 4.345491503e+00 0.000000000e+00
 2.790362763e+01 4.475528258e+00 0.000000000e+00
 2.895154839e+01 4.559016994e+00 0.000000000e+00
 3.000000000e+01 4.587785252e+00 0.000000000e+00
 0.000000000e+00 4.292893219e+00 0.000000000e+00
 8.891308222e-01 4.327501488e+00 0.000000000e+00
 1.779476350e+00 4.427938597e+00 0.000000000e+00
 2.672237982e+00 4.584373062e+00 0.000000000e+00
 3.568590642e+00 4.781491988e+00 0.000000000e+00
 4.469669914e+00 5.000000000e+00 0.000000000e+00
 5.376559593e+00 5.218508012e+00 0.000000000e+00
 6.290279816e+00 5.415626938e+00 0.000000000e+00
 7.211775882e+00 5.572061403e+00 0.000000000e+00
 8.141907896e+00 5.672498512e+00 0.000000000e+00
 9.081441346e+00 5.707106781e+00 0.000000000e+00
 1.003103872e+01 5.672498512e+00 0.000000000e+00
 1.099125223e+01 5.572061403e+00 0.000000000e+00
 1.196251780e+01 5.415626938e+00 0.000000000e+00
 1.294515024e+01 5.218508012e+00 0.000000000e+00
 1.393933983e+01 5.000000000e+00 0.000000000e+00
 1.494515024e+01 4.781491988e+00 0.000000000e+00
 1.596251780e+01 4.584373062e+00 0.000000000e+00
 1.699125223e+01 4.427938597e+00 0.000000000e+00
 1.803103872e+01 4.327501488e+00 0.000000000e+00
 1.908144135e+01 4.292893219e+00 0.000000000e+00
 2.014190790e+01 4.327501488e+00 0.000000000e+00
 2.121177588e+01 4.427938597e+00 0.000000000e+00
 2.229027982e+01 4.584373062e+00 0.000000000e+00
 2.337655959e+01 4.781491988e+00 0.000000000e+00
 2.446966991e+01 5.000000000e+00 0.000000000e+00
 2.556859064e+01 5.218508012e+00 0.000000000e+00
 2.667223798e+01 5.415626938e+00 0.000000000e+00
 2.777947635e+01 5.572061403e+00 0.000000000e+00
 2.888913082e+01 5.672498512e+00 0.000000000e+00
 3.000000000e+01 5.707106781e+00 0.000000000e+00
 0.000000000e+00 5.190983006e+00 0.000000000e+00
 8.508812858e-01 5.230579116e+00 0.000000000e+00
 1.703396347e+00 5.345491503e+00 0.000000000e+00
 2.559161061e+00 5.524471742e+00 0.000000000e+00
 3.419755698e+00 5.750000000e+00 0.000000000e+00
 4.286707613e+00 6.000000000e+00 0.000000000e+00
 5.161474508e+00 6.250000000e+00 0.000000000e+00
 6.045428465e+00 6.475528258e+00 0.000000000e+00
 6.939840907e+00 6.654508497e+00 0.000000000e+00
 7.845868674e+00 6.769420884e+00 0.000000000e+00
 8.764541345e+00 6.809016994e+00 0.000000000e+00
 9.696749959e+00 6.769420884e+00 0.000000000e+00
 1.064323725e+01 6.654508497e+00 0.000000000e+00
 1.160458953e+01 6.475528258e+00 0.000000000e+00
 1.258123021e+01 6.250000000e+00 0.000000000e+00
 1.357341523e+01 6.000000000e+00 0.000000000e+00
[...]
CELL_DATA 600
SCALARS cell_data float
LOOKUP_TABLE default
 9.730509036e-01
 9.890540296e-01
 1.019204026e+00
 1.060000201e+00
 1.106695248e+00
 1.153830848e+00
 1.195846740e+00
 1.227691244e+00
 1.245362689e+00
 1.246321471e+00
 1.229729875e+00
 1.196498897e+00
 1.149144920e+00
 1.091481189e+00
 1.028186783e+00
 9.643071769e-01
 9.047445625e-01
 8.537927813e-01
 8.147622537e-01
 7.897262949e-01
 7.794040779e-01
 7.831794796e-01
 7.992411745e-01
 8.248190674e-01
 8.564862128e-01
 8.904937316e-01
 9.231082405e-01
 9.509258552e-01
 9.711426510e-01
 9.817673769e-01
 9.500977777e-01
 9.673356702e-01
 9.996745172e-01
 1.043107104e+00
 1.092253520e+00
 1.141023330e+00
 1.183354959e+00
 1.213936275e+00
 1.228815211e+00
 1.225826557e+00
 1.204787982e+00
 1.167450753e+00
 1.117223555e+00
 1.058716634e+00
 9.971740754e-01
 9.378720167e-01
 8.855590203e-01
 8.440028258e-01
 8.156877170e-01
 8.016824468e-01
 8.016740683e-01
 8.141419107e-01
 8.366312274e-01
 8.660793430e-01
 8.991485717e-01
 9.325284864e-01
 9.631829397e-01
 9.885315997e-01
 1.006568738e+00
 1.015931168e+00
 9.092984197e-01
 9.282380619e-01
 9.635845021e-01
 1.010617912e+00
 1.063072966e+00
 1.113983225e+00
 1.156607375e+00
 1.185306448e+00
 1.196250935e+00
 1.187864406e+00
 1.160951140e+00
 1.118502771e+00
 1.065225550e+00
 1.006868330e+00
 9.494560909e-01
 8.985414438e-01
 8.585766553e-01
 8.324836529e-01
 8.214640404e-01
 8.250515966e-01
 8.413727302e-01
 8.675518579e-01
 9.001828680e-01
 9.357865849e-01
 9.711866745e-01
 1.003759600e+00
 1.031543143e+00
 1.053216979e+00
 1.067992334e+00
 1.075461707e+00
 8.600090714e-01
 8.798875335e-01
 9.168635173e-01
 9.657760733e-01
 1.019825349e+00
 1.071541991e+00
 1.113839534e+00
 1.140993868e+00
 1.149407594e+00
 1.138052553e+00
 1.108535112e+00
 1.064787461e+00
 1.012444666e+00
 9.580126433e-01
 9.079595477e-01
 8.678684900e-01
 8.417728556e-01
 8.317602944e-01
 8.378841593e-01
 8.583700829e-01
 8.900591599e-01
 9.289954074e-01
 9.710489719e-01
 1.012469919e+00
 1.050288883e+00
 1.082515740e+00
 1.108128975e+00
 1.126888683e+00
 1.139037845e+00
 1.144974021e+00
 8.141996274e-01
 8.330570380e-01
 8.681418266e-01
 9.145794379e-01
 9.659626659e-01
 1.015281044e+00
 1.055926576e+00
 1.082624684e+00
 1.092153083e+00
 1.083746388e+00
 1.059134722e+00
 1.022221977e+00
 9.784645247e-01
 9.340550057e-01
 8.950418086e-01
 8.665190769e-01
 8.520046556e-01
 8.530877875e-01
 8.693811329e-01
 8.987610605e-01
 9.378347423e-01
 9.825398357e-01
 1.028767516e+00
 1.072904184e+00
 1.112209687e+00
 1.144985718e+00
 1.170530141e+00
 1.188913660e+00
 1.200646934e+00
 1.206323459e+00
 7.842228482e-01
 7.994315034e-01
 8.278996874e-01
 8.660044204e-01
 9.089583063e-01
 9.514773616e-01
 9.885086470e-01
 1.015911611e+00
 1.030995880e+00
 1.032841736e+00
 1.022363816e+00
 1.002117940e+00
 9.758892534e-01
 9.481308842e-01
 9.233415128e-01
 9.054749131e-01
 8.974644577e-01
 9.009230015e-01
 9.160476642e-01
 9.417252444e-01
 9.758030292e-01
 1.015466632e+00
 1.057654689e+00
 1.099441160e+00
 1.138328799e+00
 1.172419107e+00
 1.200450431e+00
 1.221721757e+00
 1.235940380e+00
 1.243043326e+00
 7.803025287e-01
 7.894038487e-01
 8.068142647e-01
 8.310291635e-01
 8.599829263e-01
 8.912561697e-01
 9.223174348e-01
 9.507744650e-01
 9.746093895e-01
 9.923739921e-01
 1.003325552e+00
 1.007490010e+00
 1.005646769e+00
 9.992373994e-01
 9.902082027e-01
 9.808030154e-01
 9.733273741e-01
 9.699076606e-01
 9.722689690e-01
 9.815532352e-01
 9.981949265e-01
 1.021865783e+00
 1.051493336e+00
 1.085350871e+00
 1.121209821e+00
 1.156539865e+00
 1.188737758e+00
 1.215363505e+00
 1.234361999e+00
 1.244249766e+00
 8.081843367e-01
 8.097267045e-01
 8.134179486e-01
 8.203129281e-01
 8.316304048e-01
 8.484001110e-01
 8.711142803e-01
 8.994580172e-01
 9.321801459e-01
 9.671414111e-01
 1.001544445e+00
 1.032315555e+00
 1.056578359e+00
 1.072139154e+00
 1.077897562e+00
 1.074104903e+00
 1.062415860e+00
 1.045712439e+00
 1.027717633e+00
 1.012452818e+00
 1.003621453e+00
 1.004017061e+00
 1.015052667e+00
 1.036491760e+00
 1.066429990e+00
 1.101537029e+00
 1.137526017e+00
 1.169780570e+00
 1.194042900e+00
 1.207055537e+00
 8.674672794e-01
 8.615344874e-01
 8.515756824e-01
 8.410277559e-01
 8.341728900e-01
 8.352704713e-01
 8.476648771e-01
 8.730342509e-01
 9.109219216e-01
 9.586432152e-01
 1.011594536e+00
 1.063920256e+00
 1.109428640e+00
 1.142602145e+00
 1.159528089e+00
 1.158586563e+00
 1.140771928e+00
 1.109585589e+00
 1.070510675e+00
 1.030151053e+00
 9.951755282e-01
 9.712427825e-01
 9.620876065e-01
 9.689230624e-01
 9.902607623e-01
 1.022181224e+00
 1.059010231e+00
 1.094288231e+00
 1.121869878e+00
 1.136968388e+00
 9.510946609e-01
 9.393277668e-01
 9.185724813e-01
 8.938701584e-01
 8.715848471e-01
 8.582050268e-01
 8.590998614e-01
 8.774517029e-01
 9.135569089e-01
 9.646236915e-01
 1.025109625e+00
 1.087547532e+00
 1.143723022e+00
 1.186004854e+00
 1.208601365e+00
 1.208527364e+00
 1.186114391e+00
 1.144974711e+00
 1.091422603e+00
 1.033449361e+00
 9.794248626e-01
 9.367454917e-01
 9.106573779e-01
 9.034537645e-01
 9.141810206e-01
 9.389003761e-01
 9.714569705e-01
 1.004620706e+00
 1.031399697e+00
 1.046297798e+00
 1.046297798e+00
 1.031399697e+00
 1.004620706e+00
 9.714569705e-01
 9.389003761e-01
 9.141810206e-01
 9.034537645e-01
 9.106573779e-01
 9.367454917e-01
 9.794248626e-01
 1.033449361e+00
 1.091422603e+00
 1.144974711e+00
 1.186114391e+00
 1.208527364e+00
 1.208601365e+00
 1.186004854e+00
 1.143723022e+00
 1.087547532e+00
 1.025109625e+00
 9.646236915e-01
 9.135569089e-01
 8.774517029e-01
 8.590998614e-01
 8.582050268e-01
 8.715848471e-01
 8.938701584e-01
 9.185724813e-01
 9.393277668e-01
 9.510946609e-01
 1.136968388e+00
 1.121869878e+00
 1.094288231e+00
 1.059010231e+00
 1.022181224e+00
 9.902607623e-01
 9.689230624e-01
 9.620876065e-01
 9.712427825e-01
 9.951755282e-01
 1.030151053e+00
 1.070510675e+00
 1.109585589e+00
 1.140771928e+00
 1.158586563e+00
 1.159528089e+00
 1.142602145e+00
 1.109428640e+00
 1.063920256e+00
 1.011594536e+00
 9.586432152e-01
 9.109219216e-01
 8.730342509e-01
 8.476648771e-01
 8.352704713e-01
 8.341728900e-01
 8.410277559e-01
 8.515756824e-01
 8.615344874e-01
 8.674672794e-01
 1.207055537e+00
 1.194042900e+00
 1.169780570e+00
 1.137526017e+00
 1.101537029e+00
 1.066429990e+00
 1.036491760e+00
 1.015052667e+00
 1.004017061e+00
 1.003621453e+00
 1.012452818e+00
 1.027717633e+00
 1.045712439e+00
 1.062415860e+00
 1.074104903e+00
 1.077897562e+00
 1.072139154e+00
 1.056578359e+00
 1.032315555e+00
 1.001544445e+00
 9.671414111e-01
 9.321801459e-01
 8.994580172e-01
 8.711142803e-01
 8.484001110e-01
 8.316304048e-01
 8.203129281e-01
 8.134179486e-01
 8.097267045e-01
 8.081843367e-01
 1.244249766e+00
 1.234361999e+00
 1.215363505e+00
 1.188737758e+00
 1.156539865e+00
 1.121209821e+00
 1.085350871e+00
 1.051493336e+00
 1.021865783e+00
 9.981949265e-01
 9.815532352e-01
 9.722689690e-01
 9.699076606e-01
 9.733273741e-01
 9.808030154e-01
 9.902082027e-01
 9.992373994e-01
 1.005646769e+00
 1.007490010e+00
 1.003325552e+00
 9.923739921e-01
 9.746093895e-01
 9.507744650e-01
 9.223174348e-01
 8.912561697e-01
 8.599829263e-01
 8.310291635e-01
 8.068142647e-01
 7.894038487e-01
 7.803025287e-01
 1.243043326e+00
 1.235940380e+00
 1.221721757e+00
 1.200450431e+00
 1.172419107e+00
 1.138328799e+00
 1.099441160e+00
 1.057654689e+00
 1.015466632e+00
 9.758030292e-01
 9.417252444e-01
 9.160476642e-01
 9.009230015e-01
 8.974644577e-01
 9.054749131e-01
 9.233415128e-01
 9.481308842e-01
 9.758892534e-01
 1.002117940e+00
 1.022363816e+00
 1.032841736e+00
 1.030995880e+00
 1.015911611e+00
 9.885086470e-01
 9.514773616e-01
 9.089583063e-01
 8.660044204e-01
 8.278996874e-01
 7.994315034e-01
 7.842228482e-01
 1.206323459e+00
 1.200646934e+00
 1.188913660e+00
 1.170530141e+00
 1.144985718e+00
 1.112209687e+00
 1.072904184e+00
 1.028767516e+00
 9.825398357e-01
 9.378347423e-01
 8.987610605e-01
 8.693811329e-01
 8.530877875e-01
 8.520046556e-01
 8.665190769e-01
 8.950418086e-01
 9.340550057e-01
 9.784645247e-01
 1.022221977e+00
 1.059134722e+00
 1.083746388e+00
 1.092153083e+00
 1.082624684e+00
 1.055926576e+00
 1.015281044e+00
 9.659626659e-01
 9.145794379e-01
 8.681418266e-01
 8.330570380e-01
 8.141996274e-01
 1.144974021e+00
 1.139037845e+00
 1.126888683e+00
 1.108128975e+00
 1.082515740e+00
 1.050288883e+00
 1.012469919e+00
 9.710489719e-01
 9.289954074e-01
 8.900591599e-01
 8.583700829e-01
 8.378841593e-01
 8.317602944e-01
 8.417728556e-01
 8.678684900e-01
 9.079595477e-01
 9.580126433e-01
 1.012444666e+00
 1.064787461e+00
 1.108535112e+00
 1.138052553e+00
 1.149407594e+00
 1.140993868e+00
 1.113839534e+00
 1.071541991e+00
 1.019825349e+00
 9.657760733e-01
 9.168635173e-01
 8.798875335e-01
 8.600090714e-01
 1.075461707e+00
 1.067992334e+00
 1.053216979e+00
 1.031543143e+00
 1.003759600e+00
 9.711866745e-01
 9.357865849e-01
 9.001828680e-01
 8.675518579e-01
 8.413727302e-01
 8.250515966e-01
 8.214640404e-01
 8.324836529e-01
 8.585766553e-01
 8.985414438e-01
 9.494560909e-01
 1.006868330e+00
 1.065225550e+00
 1.118502771e+00
 1.160951140e+00
 1.187864406e+00
 1.196250935e+00
 1.185306448e+00
 1.156607375e+00
 1.113983225e+00
 1.063072966e+00
 1.010617912e+00
 9.635845021e-01
 9.282380619e-01
 9.092984197e-01
 1.015931168e+00
 1.006568738e+00
 9.885315997e-01
 9.631829397e-01
 9.325284864e-01
 8.991485717e-01
 8.660793430e-01
 8.366312274e-01
 8.141419107e-01
 8.016740683e-01
 8.016824468e-01
 8.156877170e-01
 8.440028258e-01
 8.855590203e-01
 9.378720167e-01
 9.971740754e-01
 1.058716634e+00
 1.117223555e+00
 1.167450753e+00
 1.204787982e+00
 1.225826557e+00
 1.228815211e+00
 1.213936275e+00
 1.183354959e+00
 1.141023330e+00
 1.092253520e+00
 1.043107104e+00
 9.996745172e-01
 9.673356702e-01
 9.500977777e-01
 9.817673769e-01
 9.711426510e-01
 9.509258552e-01
 9.231082405e-01
 8.904937316e-01
 8.564862128e-01
 8.248190674e-01
 7.992411745e-01
 7.831794796e-01
 7.794040779e-01
 7.897262949e-01
 8.147622537e-01
 8.537927813e-01
 9.047445625e-01
 9.643071769e-01
 1.028186783e+00
 1.091481189e+00
 1.149144920e+00
 1.196498897e+00
 1.229729875e+00
 1.246321471e+00
 1.245362689e+00
 1.227691244e+00
 1.195846740e+00
 1.153830848e+00
 1.106695248e+00
 1.060000201e+00
 1.019204026e+00
 9.890540296e-01
 9.730509036e-01
