# vtk DataFile Version 2.0
Temp
ASCII
DATASET UNSTRUCTURED_GRID
POINTS 232 float
 8.962260000e+01 1.314400000e+02 0.000000000e+00
 9.481130000e+01 1.337540000e+02 0.000000000e+00
 1.020440000e+02 1.346720000e+02 0.000000000e+00
 1.084910000e+02 1.337330000e+02 0.000000000e+00
 1.139940000e+02 1.312480000e+02 0.000000000e+00
 1.190250000e+02 1.284540000e+02 0.000000000e+00
 1.234280000e+02 1.239580000e+02 0.000000000e+00
 1.273580000e+02 1.225580000e+02 0.000000000e+00
 1.352200000e+02 1.202240000e+02 0.000000000e+00
 1.407230000e+02 1.192870000e+02 0.000000000e+00
 1.459120000e+02 1.188140000e+02 0.000000000e+00
 1.528300000e+02 1.205060000e+02 0.000000000e+00
 1.551890000e+02 1.232890000e+02 0.000000000e+00
 1.550310000e+02 1.285530000e+02 0.000000000e+00
 1.515720000e+02 1.347500000e+02 0.000000000e+00
 1.452830000e+02 1.421900000e+02 0.000000000e+00
 1.511010000e+02 1.420260000e+02 0.000000000e+00
 1.564470000e+02 1.393860000e+02 0.000000000e+00
 1.632080000e+02 1.348870000e+02 0.000000000e+00
 1.676100000e+02 1.303910000e+02 0.000000000e+00
 1.693400000e+02 1.269820000e+02 0.000000000e+00
 1.713840000e+02 1.197040000e+02 0.000000000e+00
 1.688680000e+02 1.121220000e+02 0.000000000e+00
 1.636790000e+02 1.054740000e+02 0.000000000e+00
 1.540880000e+02 1.006900000e+02 0.000000000e+00
 1.479560000e+02 9.899700000e+01 0.000000000e+00
 1.422960000e+02 9.807690000e+01 0.000000000e+00
 1.356920000e+02 9.793240000e+01 0.000000000e+00
 1.396230000e+02 9.560430000e+01 0.000000000e+00
 1.448110000e+02 9.513190000e+01 0.000000000e+00
 1.495280000e+02 9.435060000e+01 0.000000000e+00
 1.555030000e+02 8.907820000e+01 0.000000000e+00
 1.591190000e+02 8.504780000e+01 0.000000000e+00
 1.632080000e+02 7.962350000e+01 0.000000000e+00
 1.671380000e+02 7.419950000e+01 0.000000000e+00
 1.702830000e+02 6.893150000e+01 0.000000000e+00
 1.622640000e+02 6.708630000e+01 0.000000000e+00
 1.553460000e+02 6.632300000e+01 0.000000000e+00
 1.481130000e+02 6.509580000e+01 0.000000000e+00
 1.426100000e+02 6.463990000e+01 0.000000000e+00
 1.382080000e+02 6.542070000e+01 0.000000000e+00
 1.334910000e+02 6.744040000e+01 0.000000000e+00
 1.352200000e+02 6.325820000e+01 0.000000000e+00
 1.352200000e+02 5.954300000e+01 0.000000000e+00
 1.344340000e+02 5.319750000e+01 0.000000000e+00
 1.338050000e+02 4.994770000e+01 0.000000000e+00
 1.311320000e+02 5.196420000e+01 0.000000000e+00
 1.298740000e+02 4.763180000e+01 0.000000000e+00
 1.273580000e+02 4.175330000e+01 0.000000000e+00
 1.253140000e+02 3.804130000e+01 0.000000000e+00
 1.229560000e+02 3.587780000e+01 0.000000000e+00
 1.205970000e+02 3.402380000e+01 0.000000000e+00
 1.193400000e+02 3.572860000e+01 0.000000000e+00
 1.168240000e+02 3.294610000e+01 0.000000000e+00
 1.165090000e+02 2.907660000e+01 0.000000000e+00
 1.152520000e+02 2.505380000e+01 0.000000000e+00
 1.122640000e+02 2.180760000e+01 0.000000000e+00
 1.089620000e+02 2.088400000e+01 0.000000000e+00
 1.037740000e+02 2.058240000e+01 0.000000000e+00
 1.009430000e+02 1.841960000e+01 0.000000000e+00
 9.685530000e+01 1.471080000e+01 0.000000000e+00
 9.308180000e+01 1.084660000e+01 0.000000000e+00
 8.946540000e+01 6.208260000e+00 0.000000000e+00
 8.616350000e+01 1.070250000e+01 0.000000000e+00
 8.349060000e+01 1.426700000e+01 0.000000000e+00
 7.955970000e+01 1.798830000e+01 0.000000000e+00
 7.657230000e+01 2.031490000e+01 0.000000000e+00
 7.311320000e+01 2.047510000e+01 0.000000000e+00
 6.698110000e+01 2.203250000e+01 0.000000000e+00
 6.399370000e+01 2.435910000e+01 0.000000000e+00
 6.242140000e+01 2.776710000e+01 0.000000000e+00
 6.257860000e+01 3.225610000e+01 0.000000000e+00
 5.896230000e+01 3.582200000e+01 0.000000000e+00
 5.896230000e+01 3.380970000e+01 0.000000000e+00
 5.550310000e+01 3.660140000e+01 0.000000000e+00
 5.267300000e+01 4.047570000e+01 0.000000000e+00
 5.047170000e+01 4.419430000e+01 0.000000000e+00
 4.905660000e+01 4.775690000e+01 0.000000000e+00
 4.795600000e+01 5.224770000e+01 0.000000000e+00
 4.512580000e+01 5.039450000e+01 0.000000000e+00
 4.433960000e+01 5.442050000e+01 0.000000000e+00
 4.449690000e+01 5.921900000e+01 0.000000000e+00
 4.449690000e+01 6.324380000e+01 0.000000000e+00
 4.606920000e+01 6.742090000e+01 0.000000000e+00
 3.993710000e+01 6.541810000e+01 0.000000000e+00
 3.506290000e+01 6.542560000e+01 0.000000000e+00
 2.798740000e+01 6.621050000e+01 0.000000000e+00
 2.389940000e+01 6.668130000e+01 0.000000000e+00
 1.808180000e+01 6.730950000e+01 0.000000000e+00
 9.276730000e+00 6.794230000e+01 0.000000000e+00
 1.163520000e+01 7.382100000e+01 0.000000000e+00
 1.509430000e+01 7.892400000e+01 0.000000000e+00
 1.839620000e+01 8.371770000e+01 0.000000000e+00
 2.232700000e+01 8.851030000e+01 0.000000000e+00
 2.672960000e+01 9.252830000e+01 0.000000000e+00
 3.238990000e+01 9.530590000e+01 0.000000000e+00
 3.836480000e+01 9.529660000e+01 0.000000000e+00
 4.339620000e+01 9.792040000e+01 0.000000000e+00
 3.459120000e+01 9.855330000e+01 0.000000000e+00
 2.861640000e+01 9.964610000e+01 0.000000000e+00
 2.216980000e+01 1.018230000e+02 0.000000000e+00
 1.650940000e+01 1.055470000e+02 0.000000000e+00
 1.289310000e+01 1.094230000e+02 0.000000000e+00
 8.805030000e+00 1.170140000e+02 0.000000000e+00
 8.647800000e+00 1.224320000e+02 0.000000000e+00
 1.006290000e+01 1.275390000e+02 0.000000000e+00
 1.320750000e+01 1.326420000e+02 0.000000000e+00
 1.792450000e+01 1.368140000e+02 0.000000000e+00
 2.405660000e+01 1.402100000e+02 0.000000000e+00
 3.380500000e+01 1.429820000e+02 0.000000000e+00
 3.176100000e+01 1.395790000e+02 0.000000000e+00
 2.830190000e+01 1.363340000e+02 0.000000000e+00
 2.515720000e+01 1.304560000e+02 0.000000000e+00
 2.421380000e+01 1.236470000e+02 0.000000000e+00
 2.657230000e+01 1.213210000e+02 0.000000000e+00
 3.097480000e+01 1.191470000e+02 0.000000000e+00
 3.647800000e+01 1.191390000e+02 0.000000000e+00
 4.355350000e+01 1.208300000e+02 0.000000000e+00
 4.984280000e+01 1.225230000e+02 0.000000000e+00
 5.534590000e+01 1.232890000e+02 0.000000000e+00
 5.990570000e+01 1.285450000e+02 0.000000000e+00
 6.603770000e+01 1.322510000e+02 0.000000000e+00
 7.232700000e+01 1.339440000e+02 0.000000000e+00
 7.940250000e+01 1.345520000e+02 0.000000000e+00
 8.522010000e+01 1.336140000e+02 0.000000000e+00
 5.723270000e+01 3.520555000e+01 0.000000000e+00
 2.893080000e+01 1.415960000e+02 0.000000000e+00
 1.132941210e+02 3.866665948e+01 0.000000000e+00
 6.690633422e+01 4.026165806e+01 0.000000000e+00
 1.230481906e+02 5.196265474e+01 0.000000000e+00
 9.863694573e+01 2.437233352e+01 0.000000000e+00
 5.623367004e+01 5.189611479e+01 0.000000000e+00
 8.206940677e+01 2.429205276e+01 0.000000000e+00
 7.209551413e+01 1.222754308e+02 0.000000000e+00
 9.619867581e+01 1.236687456e+02 0.000000000e+00
 1.069665326e+02 1.230214260e+02 0.000000000e+00
 1.229840043e+02 1.164956048e+02 0.000000000e+00
 1.336515122e+02 9.000423411e+01 0.000000000e+00
 1.417525313e+02 7.260487089e+01 0.000000000e+00
 7.511840794e+01 2.634711226e+01 0.000000000e+00
 3.751290533e+01 7.380894073e+01 0.000000000e+00
 1.414041360e+02 8.644105008e+01 0.000000000e+00
 4.539530216e+01 8.795091346e+01 0.000000000e+00
 5.391241481e+01 1.134367540e+02 0.000000000e+00
 3.144211777e+01 8.294369669e+01 0.000000000e+00
 5.142241860e+01 6.123140000e+01 0.000000000e+00
 1.100082079e+02 3.155337404e+01 0.000000000e+00
 1.503758454e+02 8.084090815e+01 0.000000000e+00
 9.251737615e+01 2.359895134e+01 0.000000000e+00
 1.288272136e+02 6.140060000e+01 0.000000000e+00
 2.675351085e+01 7.348016756e+01 0.000000000e+00
 2.139067565e+01 1.184257025e+02 0.000000000e+00
 1.275842050e+02 1.089115234e+02 0.000000000e+00
 1.587982394e+02 1.178383422e+02 0.000000000e+00
 2.503272376e+01 1.126585688e+02 0.000000000e+00
 3.371263431e+01 1.096735819e+02 0.000000000e+00
 6.907173391e+01 2.876857429e+01 0.000000000e+00
 1.626090954e+02 1.257096696e+02 0.000000000e+00
 1.667167138e+01 1.199535708e+02 0.000000000e+00
 1.111663645e+02 6.572638201e+01 0.000000000e+00
 6.922408134e+01 6.449861997e+01 0.000000000e+00
 1.005432424e+02 1.060557907e+02 0.000000000e+00
 9.424639352e+01 3.451565460e+01 0.000000000e+00
 8.843988604e+01 4.122802358e+01 0.000000000e+00
 7.057613575e+01 1.022784731e+02 0.000000000e+00
 8.368052376e+01 1.249515688e+02 0.000000000e+00
 1.425036036e+02 1.101217294e+02 0.000000000e+00
 1.229290561e+02 9.699055913e+01 0.000000000e+00
 1.199487199e+02 4.341443378e+01 0.000000000e+00
 1.334351214e+02 7.931791420e+01 0.000000000e+00
 1.155840760e+02 1.206802899e+02 0.000000000e+00
 4.181832850e+01 1.124421321e+02 0.000000000e+00
 5.847978672e+01 4.174662735e+01 0.000000000e+00
 1.580321638e+02 7.370907967e+01 0.000000000e+00
 1.505292252e+02 7.278370566e+01 0.000000000e+00
 8.951382656e+01 1.599920787e+01 0.000000000e+00
 3.536732442e+01 8.886019377e+01 0.000000000e+00
 1.092433784e+02 2.624238992e+01 0.000000000e+00
 1.691482225e+01 1.268370608e+02 0.000000000e+00
 1.728323891e+01 1.137909312e+02 0.000000000e+00
 2.171545689e+01 7.789737207e+01 0.000000000e+00
 1.463067299e+02 8.953238485e+01 0.000000000e+00
 1.311998471e+02 5.681953567e+01 0.000000000e+00
 4.816818620e+01 5.669682305e+01 0.000000000e+00
 1.088516466e+02 5.193085544e+01 0.000000000e+00
 5.850581041e+01 7.276744889e+01 0.000000000e+00
 5.770684101e+01 9.560482414e+01 0.000000000e+00
 1.219487007e+02 7.153255117e+01 0.000000000e+00
 1.132915885e+02 1.079912808e+02 0.000000000e+00
 1.053522625e+02 8.575871259e+01 0.000000000e+00
 8.067060151e+01 1.115676912e+02 0.000000000e+00
 1.521131967e+02 1.108922507e+02 0.000000000e+00
 7.544364800e+01 3.591963206e+01 0.000000000e+00
 7.719011045e+01 5.150753720e+01 0.000000000e+00
 6.359693242e+01 1.207367927e+02 0.000000000e+00
 1.031424895e+02 2.983153596e+01 0.000000000e+00
 1.369574241e+02 1.137998336e+02 0.000000000e+00
 1.388593094e+02 1.041603383e+02 0.000000000e+00
 5.391514244e+01 4.762441530e+01 0.000000000e+00
 1.256568061e+02 5.685362503e+01 0.000000000e+00
 1.216116995e+02 3.970969682e+01 0.000000000e+00
 5.218842898e+01 5.427546959e+01 0.000000000e+00
[...]
CELL_DATA 334
SCALARS cell_data float
LOOKUP_TABLE default
 4.251692846e+04
 6.845535867e+03
 4.540932809e+03
 4.531506725e+03
 6.440040611e+03
 6.323911091e+03
 5.118142991e+03
 4.403462461e+04
 1.907307597e+04
 2.878713277e+04
 3.621322544e+04
 2.164413936e+04
 1.329193854e+04
 3.743653243e+04
 5.881634377e+03
 5.425635863e+03
 5.046472148e+03
 5.060868565e+03
 6.692466188e+03
 7.533944528e+03
 4.646587521e+03
 1.433342084e+04
 5.157578443e+03
 1.397761688e+04
 6.767415874e+03
 1.183083267e+04
 1.439087193e+04
 7.541558457e+03
 9.040195291e+03
 6.331650290e+03
 1.614435144e+04
 1.682198128e+04
 1.385085746e+04
 1.544899852e+04
 1.180033954e+04
 6.236249466e+03
 1.313949417e+04
 2.016100110e+04
 1.295186492e+04
 8.462966281e+03
 1.171285794e+04
 1.318948695e+04
 9.929031253e+03
 1.047431643e+04
 2.402176268e+04
 3.016460459e+04
 1.882614025e+04
 4.179967634e+04
 2.407428189e+04
 2.995304693e+04
 2.650997409e+04
 2.706093907e+04
 4.184152591e+04
 4.266466496e+04
 4.067917962e+04
 4.164392485e+04
 3.439429777e+04
 3.004697904e+04
 3.054206468e+04
 3.138427814e+04
 4.019038439e+04
 2.390427202e+04
 8.900302323e+03
 2.040678423e+04
 1.099509865e+04
 2.611791925e+04
 1.553012111e+04
 1.993365186e+04
 1.688085393e+04
 7.698567005e+03
 4.622749400e+03
 9.827711828e+03
 1.560841114e+04
 6.280714542e+03
 7.031252639e+03
 1.319456034e+04
 8.969682716e+03
 6.739786206e+03
 1.232680437e+04
 8.108434592e+03
 1.407107407e+04
 1.385679449e+04
 1.067110250e+04
 4.505113456e+03
 5.030820708e+03
 4.805418300e+03
 4.899613798e+03
 4.780693602e+03
 4.552715957e+03
 5.596534458e+03
 5.163536895e+03
 5.672226617e+03
 5.371892807e+03
 6.192916364e+03
 5.034207719e+03
 5.006592607e+03
 5.367805751e+03
 4.874152109e+03
 4.872503963e+03
 4.630103192e+03
 4.654277712e+03
 6.087031448e+03
 6.116020985e+03
 7.649605465e+03
 8.784681573e+03
 6.630918953e+03
 5.419819899e+03
 5.074185281e+03
 5.578910721e+03
 7.864762615e+03
 5.687596970e+03
 6.252213228e+03
 5.295679995e+03
 4.973229638e+03
 5.486376680e+03
 5.379357186e+03
 5.309416332e+03
 6.492425036e+03
 5.556287720e+03
 7.500780057e+03
 6.216588942e+03
 7.512360444e+03
 6.604133690e+03
 1.056443873e+04
 8.121617077e+03
 1.825522247e+04
 1.104579259e+04
 6.059871147e+03
 1.090033278e+04
 8.373934125e+03
 9.900489201e+03
 6.852701235e+03
 6.871236491e+03
 7.614607675e+03
 5.793594186e+03
 5.404155313e+03
 5.854554095e+03
 9.614428021e+03
 5.307629206e+03
 7.941420379e+03
 6.810247042e+03
 5.805891777e+03
 5.940030396e+03
 4.839259212e+03
 6.060206358e+03
 6.123762242e+03
 5.419298609e+03
 5.624278485e+03
 5.570823073e+03
 7.631866619e+03
 1.263134436e+04
 5.025771853e+03
 6.171424183e+03
 7.384587514e+03
 1.160274461e+04
 6.907474218e+03
 8.735673258e+03
 9.498616393e+03
 1.236689674e+04
 1.525160778e+04
 1.366638234e+04
 1.225147868e+04
 1.412077631e+04
 1.303051025e+04
 1.387332658e+04
 1.534545414e+04
 1.770629858e+04
 1.448139257e+04
 1.591705473e+04
 1.894972241e+04
 2.024818264e+04
 1.499348234e+04
 1.765777312e+04
 1.661212669e+04
 1.561832365e+04
 1.461308898e+04
 1.551190579e+04
 1.655542067e+04
 1.715253688e+04
 2.098208954e+04
 1.723271857e+04
 2.168919748e+04
 2.016586772e+04
 1.897731035e+04
 2.253332756e+04
 2.051562704e+04
 2.411967361e+04
 1.881052016e+04
 2.234046102e+04
 1.464626068e+04
 2.195795535e+04
 1.724146445e+04
 1.751760097e+04
 1.871450430e+04
 2.016861544e+04
 1.459003508e+04
 1.157547831e+04
 8.403633027e+03
 7.322149379e+03
 1.380025378e+04
 9.803772011e+03
 1.058045786e+04
 9.263598213e+03
 8.845243378e+03
 7.859309123e+03
 1.445725944e+04
 1.118784229e+04
 1.352623590e+04
 2.149312118e+04
 2.205542353e+04
 2.565366802e+04
 2.012572508e+04
 2.130710097e+04
 2.209716991e+04
 2.931816567e+04
 2.559622627e+04
 2.580883583e+04
 2.405938009e+04
 2.848541101e+04
 2.732992861e+04
 3.393544559e+04
 3.001244649e+04
 3.140329315e+04
 2.751656326e+04
 2.871518030e+04
 2.682998850e+04
 1.864535128e+04
 2.405874298e+04
 2.235579108e+04
 2.419469556e+04
 2.820550701e+04
 2.432651121e+04
 2.822465224e+04
 2.555209750e+04
 2.662432469e+04
 2.970982273e+04
 2.627532726e+04
 2.957942123e+04
 3.281281171e+04
 2.905098356e+04
 2.699395618e+04
 3.139346201e+04
 2.901188127e+04
 3.270519276e+04
 3.155287894e+04
 3.570134059e+04
 2.727734782e+04
 3.744692415e+04
 3.314196788e+04
 3.874411213e+04
 4.306617610e+04
 4.403796180e+04
 4.355808218e+04
 3.932626024e+04
 4.125736596e+04
 2.865261928e+04
 2.934311734e+04
 3.363535892e+04
 3.091261721e+04
 3.022421837e+04
 3.066540047e+04
 3.019854131e+04
 2.894451377e+04
 2.745839247e+04
 3.153498470e+04
 2.914488814e+04
 3.124790228e+04
 3.195223685e+04
 3.225378646e+04
 3.265293472e+04
 2.440434967e+04
 2.990372124e+04
 2.533075465e+04
 2.647235715e+04
 1.970143538e+04
 2.753377466e+04
 2.148273455e+04
 1.772047312e+04
 2.368427044e+04
 2.104826804e+04
 2.165985932e+04
 2.086784683e+04
 1.894084968e+04
 2.039512462e+04
 1.939596555e+04
 2.086888571e+04
 1.828117569e+04
 1.977454780e+04
 1.846284762e+04
 1.749076028e+04
 1.244296782e+04
 1.630984832e+04
 1.303902615e+04
 8.296517857e+03
 1.374915404e+04
 1.604506540e+04
 1.485591298e+04
 1.546064787e+04
 1.484923842e+04
 1.890294519e+04
 1.574554966e+04
 1.776677907e+04
 1.794564131e+04
 1.655254168e+04
 1.325946913e+04
 1.143463895e+04
 8.868863557e+03
 1.130764321e+04
 1.061138280e+04
 1.078823160e+04
 9.806407059e+03
 7.559918251e+03
 1.046633038e+04
 9.673586548e+03
 8.182371504e+03
 8.203454568e+03
 9.722379013e+03
 9.969843893e+03
 1.202835560e+04
 1.240183153e+04
 1.363819683e+04
 1.336466432e+04
 1.175925048e+04
 1.266243389e+04
 1.403657452e+04
 1.685501920e+04
 1.587211873e+04
 1.663599723e+04
 1.550319300e+04
 1.506433119e+04
 1.599782327e+04
 1.609112079e+04
 1.715217385e+04
 4.970412011e+03
