# vtk DataFile Version 2.0
Plane_Truss1
ASCII
DATASET UNSTRUCTURED_GRID
POINTS 8 float
-4.000000000e+00	 0.000000000e+00	 0.000000000e+00
-2.000000000e+00	 0.000000000e+00	 0.000000000e+00
 0.000000000e+00	 0.000000000e+00	 0.000000000e+00
 2.000000000e+00	 0.000000000e+00	 0.000000000e+00
 4.000000000e+00	 0.000000000e+00	 0.000000000e+00
-2.000000000e+00	 1.000000000e+00	 0.000000000e+00
 2.000000000e+00	 1.000000000e+00	 0.000000000e+00
 0.000000000e+00	 2.000000000e+00	 0.000000000e+00
CELLS 13 39
       2       0       1
       2       1       2
       2       2       3
       2       3       4
       2       0       5
       2       1       5
       2       5       2
       2       2       6
       2       3       6
       2       6       4
       2       5       7
       2       6       7
       2       7       2
CELL_TYPES 13
       3
       3
       3
       3
       3
       3
       3
       3
       3
       3
       3
       3
       3
CELL_DATA 13
SCALARS Sensor_2 float
LOOKUP_TABLE default
 4.000000000e+04
 4.000000000e+04
 2.000000000e+04
 2.000000000e+04
-4.472100000e+04
 1.061700000e-10
-2.236100000e+04
-7.694300000e-11
-5.308300000e-11
-2.236100000e+04
-2.236100000e+04
-2.236100000e+04
 1.000000000e+04
